<VTKFile type="PolyData" version="1.0" byte_order="LittleEndian" header_type="UInt64">
  <PolyData>
    <Piece NumberOfPoints="10712" NumberOfVerts="0" NumberOfLines="20" NumberOfStrips="0" NumberOfPolys="0">
      <PointData Scalars="RTDataGradient" Vectors="Normals">
        <DataArray type="Float64" Name="RTDataGradient" NumberOfComponents="3" format="ascii" RangeMin="0.0011986330075" RangeMax="23.577132286">
          -2.8519641962 -5.8304280553 3.7460752997 -2.4886637932 -8.508123037 3.1430879064
          -2.2396012395 -11.406823855 2.7426362441 -2.0307460816 -14.991357252 2.4153454788
          -1.9624570509 -16.499115729 2.3100554173 -1.9069620359 -17.883001665 2.2251215923
          -1.8200897041 -15.24996283 2.0985008576 -1.7302629966 -12.692079037 1.9690476594
          -1.5710494549 -8.9287722589 1.7431923372 -1.4265228679 -6.2718441787 1.5426498328
          -1.2838213759 -4.2584995123 1.3493919616 -1.1782223597 -3.1043464091 1.209774197
          -1.1238595427 -2.6079791753 1.1391223789 -1.1235986347 -1.5445405236 0.95049574758
          -1.1319166023 -0.95139366863 0.80402578285 -1.1410401322 -0.56501755245 0.67169023442
          -1.1518742062 -0.30691643897 0.54425197752 -1.1630963703 -0.1640851764 0.43876912266
          -1.1752848749 -0.0834468633 0.3480006712 -1.1888567043 -0.039347314628 0.26948985433
          -1.2042419598 -0.016662433522 0.20227465412 -1.2219889972 -0.0059497426173 0.14584532595
          -1.2428619786 -0.0014341474902 0.099804572034 -1.2679701987 0.00020218147998 0.063728029464
          -1.2988770971 0.00068760132728 0.037110112463 -1.3372112786 0.00080467549821 0.019303736599
          -1.3833026666 0.00084078159085 0.0090105151645 -1.1163516392 -5.5478942983e-05 0.0042814642118
          -0.86454804993 -0.00037772582636 0.0031110205014 -0.5505229999 -0.000395124195 0.0017703646956
          -0.36825309359 -0.00029487984501 0.0010714415555 -0.27608766762 -0.00022769647315 0.00074773147267
          -0.1839221838 -0.00015427765883 0.00045025177116 -0.091756635007 -7.7487539514e-05 0.00018895496852
          0.00040557558417 0.0010713198948 0.00035285013129 -0.002691622071 -0.1881185255 -0.003591883024
          0.00010978849905 0.0052792016806 0.00026707577793 -7.9677292821e-05 -0.1873229346 -0.00050436111262
          -1.0568409053e-06 0.0053363285376 1.9170498648e-05 4.4804275338e-05 -0.18731543164 -3.5768929258e-05
          -1.280662982e-06 0.005336606107 1.3479758419e-06 4.5061623267e-05 -0.1873153425 -2.514950192e-06
          -1.2862170235e-06 0.0053366095495 9.4771561974e-08 4.5068454066e-05 -0.18731533826 -1.7681740353e-07
          -1.2865979815e-06 0.005336609713 6.6630458496e-09 4.5068923796e-05 -0.18731533797 -1.2431392087e-08
          -1.2866247559e-06 0.005336609725 4.6845476853e-10 4.5068956811e-05 -0.18731533795 -8.7400656403e-10
          -1.2866266382e-06 0.0053366097267 3.293520061e-11 4.5068959131e-05 -0.18731533795 -6.1447763079e-11
          -1.2866267708e-06 0.0053366097277 2.3153183444e-12 4.5068959294e-05 -0.18731533795 -4.3196560491e-12
          -1.2866267805e-06 0.0053366097286 1.6300903285e-13 4.5068959306e-05 -0.18731533795 -3.0408713183e-13
          -1.2866267807e-06 0.0053366097296 1.1801558939e-14 4.5068959306e-05 -0.18731533795 -2.1981966662e-14
          -1.2866267819e-06 0.0053366097305 7.3759743371e-16 4.5068959306e-05 -0.18731533794 -1.4210816582e-15
          -1.2866267822e-06 0.0053366097315 0 4.5068959306e-05 -0.18731533794 0
          -1.2866267818e-06 0.0053366097324 0 4.5068959306e-05 -0.18731533794 0
          -1.2866267825e-06 0.0053366097334 0 4.5068959306e-05 -0.18731533794 0
          -1.2866267828e-06 0.0053366097343 0 4.5068959306e-05 -0.18731533794 0
          -1.2866267829e-06 0.0053366097353 0 4.5068959306e-05 -0.18731533794 0
          -1.2866267825e-06 0.0053366097362 0 4.5068959304e-05 -0.18731533794 0
          -1.2866267842e-06 0.0053366097372 0 4.5068959305e-05 -0.18731533794 0
          -1.2866267833e-06 0.0053366097381 0 4.5068959304e-05 -0.18731533794 0
          -1.2866267834e-06 0.0053366097391 0 4.5068959304e-05 -0.18731533794 0
          -1.2866267836e-06 0.00533660974 0 4.5068959304e-05 -0.18731533793 0
          -1.2866267837e-06 0.005336609741 0 4.5068959303e-05 -0.18731533793 0
          -1.2866267845e-06 0.0053366097419 0 4.5068959303e-05 -0.18731533793 0
          -1.2866267842e-06 0.0053366097429 0 4.5068959302e-05 -0.18731533793 0
          -1.2866267855e-06 0.0053366097438 0 4.5068959304e-05 -0.18731533793 0
          -1.2866267843e-06 0.0053366097448 0 4.5068959302e-05 -0.18731533793 0
          -1.2866267852e-06 0.0053366097457 0 4.5068959303e-05 -0.18731533793 0
          -1.2866267847e-06 0.0053366097467 0 4.5068959301e-05 -0.18731533793 0
          -1.2866267855e-06 0.0053366097476 0 4.5068959302e-05 -0.18731533793 0
          -1.2866267857e-06 0.0053366097486 0 4.5068959301e-05 -0.18731533793 0
          -1.286626787e-06 0.0053366097495 0 4.5068959302e-05 -0.18731533793 0
          -1.2866267867e-06 0.0053366097505 0 4.5068959302e-05 -0.18731533792 0
          -1.2866267863e-06 0.0053366097514 0 4.5068959301e-05 -0.18731533792 0
          -1.286626787e-06 0.0053366097524 0 4.5068959301e-05 -0.18731533792 0
          -1.286626787e-06 0.0053366097533 0 4.50689593e-05 -0.18731533792 0
          -1.2866267879e-06 0.0053366097543 0 4.5068959301e-05 -0.18731533792 0
          -1.2866267874e-06 0.0053366097552 0 4.50689593e-05 -0.18731533792 0
          -1.2866267888e-06 0.0053366097562 0 4.5068959301e-05 -0.18731533792 0
          -1.2866267877e-06 0.0053366097571 0 4.5068959299e-05 -0.18731533792 0
          -1.2866267892e-06 0.005336609758 0 4.50689593e-05 -0.18731533792 0
          -1.2866267882e-06 0.005336609759 0 4.5068959299e-05 -0.18731533792 0
          -1.2866267894e-06 0.0053366097599 0 4.50689593e-05 -0.18731533792 0
          -1.2866267885e-06 0.0053366097609 0 4.5068959298e-05 -0.18731533791 0
          -1.2866267887e-06 0.0053366097618 0 4.5068959298e-05 -0.18731533791 0
          -1.28662679e-06 0.0053366097628 0 4.5068959299e-05 -0.18731533791 0
          -1.2866267895e-06 0.0053366097637 0 4.5068959298e-05 -0.18731533791 0
          -1.2866267904e-06 0.0053366097647 0 4.5068959299e-05 -0.18731533791 0
          -1.2866267906e-06 0.0053366097656 0 4.5068959298e-05 -0.18731533791 0
          -1.2866267907e-06 0.0053366097666 0 4.5068959298e-05 -0.18731533791 0
          -1.2866267921e-06 0.0053366097675 0 4.5068959299e-05 -0.18731533791 0
          -1.286626791e-06 0.0053366097685 0 4.5068959297e-05 -0.18731533791 0
          -1.2866267917e-06 0.0053366097694 0 4.5068959297e-05 -0.18731533791 0
          -1.2866267913e-06 0.0053366097704 0 4.5068959297e-05 -0.1873153379 0
          -1.2866267916e-06 0.0053366097713 0 4.5068959297e-05 -0.1873153379 0
          -1.2866267917e-06 0.0053366097723 0 4.5068959296e-05 -0.1873153379 0
          -1.2866267918e-06 0.0053366097732 0 4.5068959296e-05 -0.1873153379 0
          -1.2866267919e-06 0.0053366097742 0 4.5068959295e-05 -0.1873153379 0
          -1.2866267922e-06 0.0053366097751 0 4.5068959295e-05 -0.1873153379 0
          -1.2866267935e-06 0.0053366097761 0 4.5068959296e-05 -0.1873153379 0
          -1.286626793e-06 0.005336609777 0 4.5068959295e-05 -0.1873153379 0
          -1.2866267939e-06 0.005336609778 0 4.5068959296e-05 -0.1873153379 0
          -1.2866267934e-06 0.0053366097789 0 4.5068959295e-05 -0.1873153379 0
          -1.2866267941e-06 0.0053366097799 0 4.5068959295e-05 -0.1873153379 0
          -1.2866267942e-06 0.0053366097808 0 4.5068959294e-05 -0.18731533789 0
          -1.2866267944e-06 0.0053366097818 0 4.5068959294e-05 -0.18731533789 0
          -1.2866267945e-06 0.0053366097827 0 4.5068959294e-05 -0.18731533789 0
          -1.2866267954e-06 0.0053366097837 0 4.5068959294e-05 -0.18731533789 0
          -1.286626795e-06 0.0053366097846 0 4.5068959293e-05 -0.18731533789 0
          -1.2866267957e-06 0.0053366097856 0 4.5068959293e-05 -0.18731533789 0
          -1.2866267966e-06 0.0053366097865 0 4.5068959294e-05 -0.18731533789 0
          -1.2866267954e-06 0.0053366097875 0 4.5068959292e-05 -0.18731533789 0
          -1.2866267957e-06 0.0053366097884 0 4.5068959292e-05 -0.18731533789 0
          -1.2866267957e-06 0.0053366097894 0 4.5068959292e-05 -0.18731533789 0
          -1.286626796e-06 0.0053366097903 0 4.5068959291e-05 -0.18731533788 0
          -1.2866267973e-06 0.0053366097913 0 4.5068959292e-05 -0.18731533788 0
          -1.2866267974e-06 0.0053366097922 0 4.5068959292e-05 -0.18731533788 0
          -1.2866267965e-06 0.0053366097932 0 4.5068959291e-05 -0.18731533788 0
          -1.2866267978e-06 0.0053366097941 0 4.5068959292e-05 -0.18731533788 0
          -1.2866267968e-06 0.0053366097951 0 4.506895929e-05 -0.18731533788 0
          -1.2866267981e-06 0.005336609796 0 4.5068959291e-05 -0.18731533788 0
          -1.2866267984e-06 0.005336609797 0 4.5068959291e-05 -0.18731533788 0
          -1.2866267985e-06 0.0053366097979 0 4.5068959291e-05 -0.18731533788 0
          -1.2866267987e-06 0.0053366097989 0 4.506895929e-05 -0.18731533788 0
          -1.2866267988e-06 0.0053366097998 0 4.506895929e-05 -0.18731533788 0
          -1.2866267991e-06 0.0053366098007 0 4.506895929e-05 -0.18731533787 0
          -1.2866267993e-06 0.0053366098017 0 4.506895929e-05 -0.18731533787 0
          -1.2866267992e-06 0.0053366098026 0 4.5068959289e-05 -0.18731533787 0
          -1.286626799e-06 0.0053366098036 0 4.5068959288e-05 -0.18731533787 0
          -1.2866267996e-06 0.0053366098045 0 4.5068959288e-05 -0.18731533787 0
          -1.2866267998e-06 0.0053366098055 0 4.5068959289e-05 -0.18731533787 0
          -1.2866267999e-06 0.0053366098064 0 4.5068959288e-05 -0.18731533787 0
          -1.2866268002e-06 0.0053366098074 0 4.5068959287e-05 -0.18731533787 0
          -1.2866268015e-06 0.0053366098083 0 4.5068959289e-05 -0.18731533787 0
          -1.2866268017e-06 0.0053366098093 0 4.5068959289e-05 -0.18731533787 0
          -1.2866268018e-06 0.0053366098102 0 4.5068959288e-05 -0.18731533786 0
          -1.286626802e-06 0.0053366098112 0 4.5068959288e-05 -0.18731533786 0
          -1.286626801e-06 0.0053366098121 0 4.5068959286e-05 -0.18731533786 0
          -1.2866268023e-06 0.0053366098131 0 4.5068959288e-05 -0.18731533786 0
          -1.2866268018e-06 0.005336609814 0 4.5068959286e-05 -0.18731533786 0
          -1.2866268026e-06 0.005336609815 0 4.5068959286e-05 -0.18731533786 0
          -1.2866268022e-06 0.0053366098159 0 4.5068959286e-05 -0.18731533786 0
          -1.2866268029e-06 0.0053366098169 0 4.5068959286e-05 -0.18731533786 0
          -1.2866268031e-06 0.0053366098178 0 4.5068959285e-05 -0.18731533786 0
          -1.2866268032e-06 0.0053366098188 0 4.5068959285e-05 -0.18731533786 0
          -1.286626804e-06 0.0053366098197 0 4.5068959285e-05 -0.18731533786 0
          -1.2866268048e-06 0.0053366098207 0 4.5068959286e-05 -0.18731533785 0
          -1.2866268043e-06 0.0053366098216 0 4.5068959285e-05 -0.18731533785 0
          -1.286626805e-06 0.0053366098226 0 4.5068959286e-05 -0.18731533785 0
          -1.286626804e-06 0.0053366098235 0 4.5068959283e-05 -0.18731533785 0
          -1.2866268054e-06 0.0053366098245 0 4.5068959285e-05 -0.18731533785 0
          -1.2866268056e-06 0.0053366098254 0 4.5068959284e-05 -0.18731533785 0
          -1.2866268046e-06 0.0053366098264 0 4.5068959283e-05 -0.18731533785 0
          -1.286626806e-06 0.0053366098273 0 4.5068959284e-05 -0.18731533785 0
          -1.2866268061e-06 0.0053366098283 0 4.5068959283e-05 -0.18731533785 0
          -1.286626805e-06 0.0053366098292 0 4.5068959282e-05 -0.18731533785 0
          -1.2866268065e-06 0.0053366098302 0 4.5068959283e-05 -0.18731533784 0
          -1.2866268054e-06 0.0053366098311 0 4.5068959281e-05 -0.18731533784 0
          -1.2866268067e-06 0.0053366098321 0 4.5068959282e-05 -0.18731533784 0
          -1.286626807e-06 0.005336609833 0 4.5068959282e-05 -0.18731533784 0
          -1.2866268071e-06 0.005336609834 0 4.5068959282e-05 -0.18731533784 0
          -1.2866268073e-06 0.0053366098349 0 4.5068959282e-05 -0.18731533784 0
          -1.2866268074e-06 0.0053366098359 0 4.5068959281e-05 -0.18731533784 0
          -1.2866268089e-06 0.0053366098368 0 4.5068959282e-05 -0.18731533784 0
          -1.2866268084e-06 0.0053366098378 0 4.5068959281e-05 -0.18731533784 0
          -1.2866268079e-06 0.0053366098387 0 4.506895928e-05 -0.18731533784 0
          -1.2866268081e-06 0.0053366098397 0 4.506895928e-05 -0.18731533784 0
          -1.2866268083e-06 0.0053366098406 0 4.506895928e-05 -0.18731533783 0
          -1.2866268084e-06 0.0053366098416 0 4.5068959279e-05 -0.18731533783 0
          -1.2866268086e-06 0.0053366098425 0 4.5068959279e-05 -0.18731533783 0
          -1.2866268101e-06 0.0053366098434 0 4.5068959281e-05 -0.18731533783 0
          -1.2866268096e-06 0.0053366098444 0 4.506895928e-05 -0.18731533783 0
          -1.2866268091e-06 0.0053366098453 0 4.5068959278e-05 -0.18731533783 0
          -1.2866268105e-06 0.0053366098463 0 4.5068959279e-05 -0.18731533783 0
          -1.2866268095e-06 0.0053366098472 0 4.5068959278e-05 -0.18731533783 0
          -1.2866268108e-06 0.0053366098482 0 4.5068959279e-05 -0.18731533783 0
          -1.286626811e-06 0.0053366098491 0 4.5068959279e-05 -0.18731533783 0
          -1.2866268105e-06 0.0053366098501 0 4.5068959277e-05 -0.18731533782 0
          -1.2866268113e-06 0.005336609851 0 4.5068959278e-05 -0.18731533782 0
          -1.2866268115e-06 0.005336609852 0 4.5068959278e-05 -0.18731533782 0
          -1.2866268116e-06 0.0053366098529 0 4.5068959277e-05 -0.18731533782 0
          -1.2866268125e-06 0.0053366098539 0 4.5068959278e-05 -0.18731533782 0
          -1.2866268119e-06 0.0053366098548 0 4.5068959277e-05 -0.18731533782 0
          -1.2866268127e-06 0.0053366098558 0 4.5068959276e-05 -0.18731533782 0
          -1.2866268134e-06 0.0053366098567 0 4.5068959278e-05 -0.18731533782 0
          -1.2866268126e-06 0.0053366098577 0 4.5068959276e-05 -0.18731533782 0
          -1.2866268126e-06 0.0053366098586 0 4.5068959275e-05 -0.18731533782 0
          -1.2866268127e-06 0.0053366098596 0 4.5068959275e-05 -0.18731533782 0
          -1.286626814e-06 0.0053366098605 0 4.5068959276e-05 -0.18731533781 0
          -1.2866268142e-06 0.0053366098615 0 4.5068959275e-05 -0.18731533781 0
          -1.2866268132e-06 0.0053366098624 0 4.5068959274e-05 -0.18731533781 0
          -1.2866268146e-06 0.0053366098634 0 4.5068959275e-05 -0.18731533781 0
          -1.2866268146e-06 0.0053366098643 0 4.5068959275e-05 -0.18731533781 0
          -1.2866268142e-06 0.0053366098653 0 4.5068959274e-05 -0.18731533781 0
          -1.2866268151e-06 0.0053366098662 0 4.5068959274e-05 -0.18731533781 0
          -1.2866268153e-06 0.0053366098672 0 4.5068959274e-05 -0.18731533781 0
          -1.2866268154e-06 0.0053366098681 0 4.5068959274e-05 -0.18731533781 0
          -1.2866268157e-06 0.0053366098691 0 4.5068959273e-05 -0.18731533781 0
          -1.2866268158e-06 0.00533660987 0 4.5068959273e-05 -0.1873153378 0
          -1.2866268164e-06 0.005336609871 0 4.5068959274e-05 -0.1873153378 0
          -1.2866268161e-06 0.0053366098719 0 4.5068959272e-05 -0.1873153378 0
          -1.2866268174e-06 0.0053366098729 0 4.5068959273e-05 -0.1873153378 0
          -1.2866268176e-06 0.0053366098738 0 4.5068959273e-05 -0.1873153378 0
          -1.2866268164e-06 0.0053366098748 0 4.5068959271e-05 -0.1873153378 0
          -1.2866268167e-06 0.0053366098757 0 4.5068959271e-05 -0.1873153378 0
          -1.2866268169e-06 0.0053366098767 0 4.5068959271e-05 -0.1873153378 0
          -1.2866268171e-06 0.0053366098776 0 4.506895927e-05 -0.1873153378 0
          -1.2866268179e-06 0.0053366098786 0 4.5068959271e-05 -0.1873153378 0
          -1.2866268174e-06 0.0053366098795 0 4.506895927e-05 -0.1873153378 0
          -1.2866268187e-06 0.0053366098805 0 4.5068959271e-05 -0.18731533779 0
          -1.2866268188e-06 0.0053366098814 0 4.5068959271e-05 -0.18731533779 0
          -1.2866268197e-06 0.0053366098824 0 4.5068959272e-05 -0.18731533779 0
          -1.2866268182e-06 0.0053366098833 0 4.5068959269e-05 -0.18731533779 0
          -1.2866268194e-06 0.0053366098842 0 4.506895927e-05 -0.18731533779 0
          -1.2866268196e-06 0.0053366098852 0 4.506895927e-05 -0.18731533779 0
          -1.2866268198e-06 0.0053366098861 0 4.506895927e-05 -0.18731533779 0
          -1.28662682e-06 0.0053366098871 0 4.5068959269e-05 -0.18731533779 0
          -1.2866268201e-06 0.005336609888 0 4.5068959269e-05 -0.18731533779 0
          -1.286626821e-06 0.005336609889 0 4.506895927e-05 -0.18731533779 0
          -1.2866268206e-06 0.0053366098899 0 4.5068959268e-05 -0.18731533779 0
          -1.2866268218e-06 0.0053366098909 0 4.5068959269e-05 -0.18731533778 0
          -1.2866268213e-06 0.0053366098918 0 4.5068959268e-05 -0.18731533778 0
          -1.2866268222e-06 0.0053366098928 0 4.5068959269e-05 -0.18731533778 0
          -1.2866268217e-06 0.0053366098937 0 4.5068959267e-05 -0.18731533778 0
          -1.2866268218e-06 0.0053366098947 0 4.5068959267e-05 -0.18731533778 0
          -1.2866268214e-06 0.0053366098956 0 4.5068959266e-05 -0.18731533778 0
          -1.2866268227e-06 0.0053366098966 0 4.5068959268e-05 -0.18731533778 0
          -1.2866268224e-06 0.0053366098975 0 4.5068959267e-05 -0.18731533778 0
          -1.286626823e-06 0.0053366098985 0 4.5068959267e-05 -0.18731533778 0
          -1.2866268226e-06 0.0053366098994 0 4.5068959266e-05 -0.18731533778 0
          -1.2866268233e-06 0.0053366099004 0 4.5068959266e-05 -0.18731533777 0
          -1.2866268241e-06 0.0053366099013 0 4.5068959267e-05 -0.18731533777 0
          -1.2866268237e-06 0.0053366099023 0 4.5068959265e-05 -0.18731533777 0
          -1.2866268239e-06 0.0053366099032 0 4.5068959265e-05 -0.18731533777 0
          -1.286626824e-06 0.0053366099042 0 4.5068959264e-05 -0.18731533777 0
          -1.2866268248e-06 0.0053366099051 0 4.5068959265e-05 -0.18731533777 0
          -1.2866268244e-06 0.0053366099061 0 4.5068959264e-05 -0.18731533777 0
          -1.2866268251e-06 0.005336609907 0 4.5068959264e-05 -0.18731533777 0
          -1.2866268253e-06 0.005336609908 0 4.5068959264e-05 -0.18731533777 0
          -1.286626826e-06 0.0053366099089 0 4.5068959265e-05 -0.18731533777 0
          -1.2866268251e-06 0.0053366099099 0 4.5068959263e-05 -0.18731533777 0
          -1.2866268259e-06 0.0053366099108 0 4.5068959263e-05 -0.18731533776 0
          -1.2866268272e-06 0.0053366099118 0 4.5068959265e-05 -0.18731533776 0
          -1.2866268274e-06 0.0053366099127 0 4.5068959264e-05 -0.18731533776 0
          -1.2866268268e-06 0.0053366099137 0 4.5068959264e-05 -0.18731533776 0
          -1.2866268265e-06 0.0053366099146 0 4.5068959263e-05 -0.18731533776 0
          -1.2866268266e-06 0.0053366099156 0 4.5068959262e-05 -0.18731533776 0
          -1.2866268275e-06 0.0053366099165 0 4.5068959263e-05 -0.18731533776 0
          -1.2866268275e-06 0.0053366099175 0 4.5068959262e-05 -0.18731533776 0
          -1.2866268271e-06 0.0053366099184 0 4.5068959261e-05 -0.18731533776 0
          -1.286626828e-06 0.0053366099194 0 4.5068959262e-05 -0.18731533776 0
          -1.2866268281e-06 0.0053366099203 0 4.5068959262e-05 -0.18731533775 0
          -1.2866268283e-06 0.0053366099213 0 4.5068959261e-05 -0.18731533775 0
          -1.286626829e-06 0.0053366099222 0 4.5068959261e-05 -0.18731533775 0
          -1.2866268287e-06 0.0053366099232 0 4.506895926e-05 -0.18731533775 0
          -1.2866268293e-06 0.0053366099241 0 4.5068959261e-05 -0.18731533775 0
          -1.2866268295e-06 0.0053366099251 0 4.5068959261e-05 -0.18731533775 0
          -1.2866268297e-06 0.005336609926 0 4.506895926e-05 -0.18731533775 0
          -1.2866268298e-06 0.0053366099269 0 4.506895926e-05 -0.18731533775 0
          -1.2866268306e-06 0.0053366099279 0 4.506895926e-05 -0.18731533775 0
          -1.2866268302e-06 0.0053366099288 0 4.5068959259e-05 -0.18731533775 0
          -1.2866268315e-06 0.0053366099298 0 4.506895926e-05 -0.18731533775 0
          -1.2866268317e-06 0.0053366099307 0 4.506895926e-05 -0.18731533774 0
          -1.2866268308e-06 0.0053366099317 0 4.5068959258e-05 -0.18731533774 0
          -1.2866268315e-06 0.0053366099326 0 4.5068959259e-05 -0.18731533774 0
          -1.2866268316e-06 0.0053366099336 0 4.5068959259e-05 -0.18731533774 0
          -1.2866268318e-06 0.0053366099345 0 4.5068959258e-05 -0.18731533774 0
          -1.2866268325e-06 0.0053366099355 0 4.5068959259e-05 -0.18731533774 0
          -1.2866268316e-06 0.0053366099364 0 4.5068959258e-05 -0.18731533774 0
          -1.2866268323e-06 0.0053366099374 0 4.5068959257e-05 -0.18731533774 0
          -1.2866268323e-06 0.0053366099383 0 4.5068959257e-05 -0.18731533774 0
          -1.2866268332e-06 0.0053366099393 0 4.5068959257e-05 -0.18731533774 0
          -1.2866268332e-06 0.0053366099402 0 4.5068959257e-05 -0.18731533773 0
          -1.2866268328e-06 0.0053366099412 0 4.5068959256e-05 -0.18731533773 0
          -1.2866268343e-06 0.0053366099421 0 4.5068959257e-05 -0.18731533773 0
          -1.2866268331e-06 0.0053366099431 0 4.5068959255e-05 -0.18731533773 0
          -1.2866268346e-06 0.005336609944 0 4.5068959256e-05 -0.18731533773 0
          -1.2866268347e-06 0.005336609945 0 4.5068959256e-05 -0.18731533773 0
          -1.2866268349e-06 0.0053366099459 0 4.5068959256e-05 -0.18731533773 0
          -1.286626835e-06 0.0053366099469 0 4.5068959256e-05 -0.18731533773 0
          -1.2866268346e-06 0.0053366099478 0 4.5068959254e-05 -0.18731533773 0
          -1.2866268354e-06 0.0053366099488 0 4.5068959255e-05 -0.18731533773 0
          -1.2866268355e-06 0.0053366099497 0 4.5068959254e-05 -0.18731533773 0
          -1.2866268358e-06 0.0053366099507 0 4.5068959254e-05 -0.18731533772 0
          -1.2866268365e-06 0.0053366099516 0 4.5068959255e-05 -0.18731533772 0
          -1.2866268361e-06 0.0053366099526 0 4.5068959254e-05 -0.18731533772 0
          -1.2866268361e-06 0.0053366099535 0 4.5068959253e-05 -0.18731533772 0
          -1.2866268364e-06 0.0053366099545 0 4.5068959253e-05 -0.18731533772 0
          -1.2866268365e-06 0.0053366099554 0 4.5068959253e-05 -0.18731533772 0
          -1.2866268367e-06 0.0053366099564 0 4.5068959252e-05 -0.18731533772 0
          -1.2866268376e-06 0.0053366099573 0 4.5068959253e-05 -0.18731533772 0
          -1.2866268383e-06 0.0053366099583 0 4.5068959253e-05 -0.18731533772 0
          -1.2866268383e-06 0.0053366099592 0 4.5068959252e-05 -0.18731533772 0
          -1.2866268373e-06 0.0053366099602 0 4.5068959251e-05 -0.18731533771 0
          -1.2866268388e-06 0.0053366099611 0 4.5068959252e-05 -0.18731533771 0
          -1.2866268384e-06 0.0053366099621 0 4.5068959252e-05 -0.18731533771 0
          -1.2866268391e-06 0.005336609963 0 4.5068959252e-05 -0.18731533771 0
          -1.2866268392e-06 0.005336609964 0 4.5068959252e-05 -0.18731533771 0
          -1.2866268388e-06 0.0053366099649 0 4.506895925e-05 -0.18731533771 0
          -1.2866268395e-06 0.0053366099659 0 4.5068959251e-05 -0.18731533771 0
          -1.2866268398e-06 0.0053366099668 0 4.5068959251e-05 -0.18731533771 0
          -1.2866268387e-06 0.0053366099678 0 4.5068959249e-05 -0.18731533771 0
          -1.2866268401e-06 0.0053366099687 0 4.506895925e-05 -0.18731533771 0
          -1.2866268409e-06 0.0053366099696 0 4.5068959251e-05 -0.18731533771 0
          -1.2866268404e-06 0.0053366099706 0 4.5068959249e-05 -0.1873153377 0
          -1.2866268407e-06 0.0053366099715 0 4.5068959249e-05 -0.1873153377 0
          -1.2866268419e-06 0.0053366099725 0 4.506895925e-05 -0.1873153377 0
          -1.286626841e-06 0.0053366099734 0 4.5068959249e-05 -0.1873153377 0
          -1.286626841e-06 0.0053366099744 0 4.5068959248e-05 -0.1873153377 0
          -1.2866268423e-06 0.0053366099753 0 4.5068959249e-05 -0.1873153377 0
          -1.2866268421e-06 0.0053366099763 0 4.5068959248e-05 -0.1873153377 0
          -1.2866268427e-06 0.0053366099772 0 4.5068959248e-05 -0.1873153377 0
          -1.286626843e-06 0.0053366099782 0 4.5068959249e-05 -0.1873153377 0
          -1.286626843e-06 0.0053366099791 0 4.5068959248e-05 -0.1873153377 0
          -1.2866268432e-06 0.0053366099801 0 4.5068959248e-05 -0.18731533769 0
          -1.2866268433e-06 0.005336609981 0 4.5068959247e-05 -0.18731533769 0
          -1.2866268435e-06 0.005336609982 0 4.5068959247e-05 -0.18731533769 0
          -1.2866268436e-06 0.0053366099829 0 4.5068959247e-05 -0.18731533769 0
          -1.2866268438e-06 0.0053366099839 0 4.5068959247e-05 -0.18731533769 0
          -1.286626844e-06 0.0053366099848 0 4.5068959246e-05 -0.18731533769 0
          -1.2866268448e-06 0.0053366099858 0 4.5068959247e-05 -0.18731533769 0
          -1.2866268443e-06 0.0053366099867 0 4.5068959245e-05 -0.18731533769 0
          -1.2866268452e-06 0.0053366099877 0 4.5068959246e-05 -0.18731533769 0
          -1.2866268448e-06 0.0053366099886 0 4.5068959245e-05 -0.18731533769 0
          -1.2866268448e-06 0.0053366099896 0 4.5068959245e-05 -0.18731533769 0
          -1.2866268451e-06 0.0053366099905 0 4.5068959245e-05 -0.18731533768 0
          -1.2866268452e-06 0.0053366099915 0 4.5068959244e-05 -0.18731533768 0
          -1.2866268454e-06 0.0053366099924 0 4.5068959244e-05 -0.18731533768 0
          -1.2866268467e-06 0.0053366099934 0 4.5068959245e-05 -0.18731533768 0
          -1.2866268457e-06 0.0053366099943 0 4.5068959243e-05 -0.18731533768 0
          -1.286626847e-06 0.0053366099953 0 4.5068959244e-05 -0.18731533768 0
          -1.2866268472e-06 0.0053366099962 0 4.5068959244e-05 -0.18731533768 0
          -1.2866268475e-06 0.0053366099972 0 4.5068959243e-05 -0.18731533768 0
          -1.2866268476e-06 0.0053366099981 0 4.5068959243e-05 -0.18731533768 0
          -1.2866268478e-06 0.0053366099991 0 4.5068959243e-05 -0.18731533768 0
          -1.2866268479e-06 0.00533661 0 4.5068959243e-05 -0.18731533767 0
          -1.2866268482e-06 0.005336610001 0 4.5068959243e-05 -0.18731533767 0
          -1.2866268482e-06 0.0053366100019 0 4.5068959242e-05 -0.18731533767 0
          -1.2866268483e-06 0.0053366100029 0 4.5068959241e-05 -0.18731533767 0
          -1.2866268491e-06 0.0053366100038 0 4.5068959242e-05 -0.18731533767 0
          -1.2866268494e-06 0.0053366100048 0 4.5068959242e-05 -0.18731533767 0
          -1.2866268488e-06 0.0053366100057 0 4.5068959241e-05 -0.18731533767 0
          -1.286626849e-06 0.0053366100067 0 4.5068959241e-05 -0.18731533767 0
          -1.2866268506e-06 0.0053366100076 0 4.5068959242e-05 -0.18731533767 0
          -1.2866268512e-06 0.0053366100086 0 4.5068959242e-05 -0.18731533767 0
          -1.2866268508e-06 0.0053366100095 0 4.5068959241e-05 -0.18731533767 0
          -1.2866268497e-06 0.0053366100105 0 4.5068959239e-05 -0.18731533766 0
          -1.2866268511e-06 0.0053366100114 0 4.5068959241e-05 -0.18731533766 0
          -1.28662685e-06 0.0053366100123 0 4.5068959238e-05 -0.18731533766 0
          -1.2866268514e-06 0.0053366100133 0 4.506895924e-05 -0.18731533766 0
          -1.2866268509e-06 0.0053366100142 0 4.5068959239e-05 -0.18731533766 0
          -1.2866268517e-06 0.0053366100152 0 4.5068959239e-05 -0.18731533766 0
          -1.2866268519e-06 0.0053366100161 0 4.5068959239e-05 -0.18731533766 0
          -1.286626852e-06 0.0053366100171 0 4.5068959238e-05 -0.18731533766 0
          -1.2866268521e-06 0.005336610018 0 4.5068959239e-05 -0.18731533766 0
          -1.2866268523e-06 0.005336610019 0 4.5068959238e-05 -0.18731533766 0
          -1.2866268531e-06 0.0053366100199 0 4.5068959238e-05 -0.18731533766 0
          -1.2866268527e-06 0.0053366100209 0 4.5068959237e-05 -0.18731533765 0
          -1.2866268534e-06 0.0053366100218 0 4.5068959238e-05 -0.18731533765 0
          -1.286626853e-06 0.0053366100228 0 4.5068959237e-05 -0.18731533765 0
          -1.2866268544e-06 0.0053366100237 0 4.5068959238e-05 -0.18731533765 0
          -1.2866268544e-06 0.0053366100247 0 4.5068959237e-05 -0.18731533765 0
          -1.2866268534e-06 0.0053366100256 0 4.5068959235e-05 -0.18731533765 0
          -1.2866268543e-06 0.0053366100266 0 4.5068959236e-05 -0.18731533765 0
          -1.2866268551e-06 0.0053366100275 0 4.5068959237e-05 -0.18731533765 0
          -1.2866268539e-06 0.0053366100285 0 4.5068959235e-05 -0.18731533765 0
          -1.2866268554e-06 0.0053366100294 0 4.5068959237e-05 -0.18731533765 0
          -1.2866268543e-06 0.0053366100304 0 4.5068959234e-05 -0.18731533764 0
          -1.2866268556e-06 0.0053366100313 0 4.5068959235e-05 -0.18731533764 0
          -1.2866268553e-06 0.0053366100323 0 4.5068959234e-05 -0.18731533764 0
          -1.286626856e-06 0.0053366100332 0 4.5068959235e-05 -0.18731533764 0
          -1.2866268562e-06 0.0053366100342 0 4.5068959235e-05 -0.18731533764 0
          -1.2866268563e-06 0.0053366100351 0 4.5068959234e-05 -0.18731533764 0
          -1.2866268565e-06 0.0053366100361 0 4.5068959234e-05 -0.18731533764 0
          -1.2866268574e-06 0.005336610037 0 4.5068959234e-05 -0.18731533764 0
          -1.2866268574e-06 0.005336610038 0 4.5068959234e-05 -0.18731533764 0
          -1.2866268582e-06 0.0053366100389 0 4.5068959235e-05 -0.18731533764 0
          -1.2866268584e-06 0.0053366100399 0 4.5068959235e-05 -0.18731533764 0
          -1.2866268585e-06 0.0053366100408 0 4.5068959233e-05 -0.18731533763 0
          -1.2866268575e-06 0.0053366100418 0 4.5068959232e-05 -0.18731533763 0
          -1.2866268577e-06 0.0053366100427 0 4.5068959232e-05 -0.18731533763 0
          -1.2866268591e-06 0.0053366100437 0 4.5068959233e-05 -0.18731533763 0
          -1.2866268586e-06 0.0053366100446 0 4.5068959232e-05 -0.18731533763 0
          -1.2866268593e-06 0.0053366100456 0 4.5068959232e-05 -0.18731533763 0
          -1.2866268596e-06 0.0053366100465 0 4.5068959233e-05 -0.18731533763 0
          -1.2866268586e-06 0.0053366100475 0 4.5068959231e-05 -0.18731533763 0